 Gaussian 09, Revision D.01,
 Gaussian 09:  EM64L-G09RevD.01 24-Apr-2013

 ----------------------------------------------------------------------
 # PBE1PBE Def2SVP Freq EmpiricalDispersion=GD3BJ integral=ultrafinegri
 d Temperature=298.15
 ----------------------------------------------------------------------

 -------------
 C2H6_hess_g09
 -------------
 Symbolic Z-matrix:
 Charge =  0 Multiplicity = 1

                         Standard orientation:
 ---------------------------------------------------------------------
 Center     Atomic      Atomic             Coordinates (Angstroms)
 Number     Number       Type             X           Y           Z
 ---------------------------------------------------------------------
      1          6           0       -0.759525    0.000034   -0.000040
      2          6           0        0.759423    0.000021   -0.000027
      3          1           0       -1.164479    0.125401    1.016317
      4          1           0       -1.164525    0.817556   -0.616749
      5          1           0       -1.164645   -0.942931   -0.399436
      6          1           0        1.164907    0.942798    0.399436
      7          1           0        1.164925   -0.125811   -1.016153
      8          1           0        1.164429   -0.817346    0.616986
 ---------------------------------------------------------------------

 SCF Done:  E(RPBE1PBE) =  -79.6667221287     A.U. after    9 cycles

 The electronic state is 1-A.
 Alpha  occ. eigenvalues --  -10.22234 -10.22226  -0.76575  -0.62268  -0.44384
 Alpha  occ. eigenvalues --   -0.44383  -0.38202  -0.34849  -0.34848
 Alpha virt. eigenvalues --    0.07698   0.12328   0.13650   0.13651   0.17008
 Alpha virt. eigenvalues --    0.17009   0.24738   0.42858   0.42862   0.44206
 Alpha virt. eigenvalues --    0.53943   0.53952   0.63886   0.66252   0.69522

 Mulliken charges:
               1
     1  C   -0.135627
     2  C   -0.135763
     3  H    0.045229
     4  H    0.045251
     5  H    0.045251
     6  H    0.045230
     7  H    0.045229
     8  H    0.045200
 Sum of Mulliken charges =   0.00000

 Dipole moment (field-independent basis, Debye):
    X=              0.0000    Y=             -0.0001    Z=              0.0002  Tot=              0.0002
 Quadrupole moment (field-independent basis, Debye-Ang):
   XX=            -15.3344   YY=            -14.7623   ZZ=            -14.7627
   XY=              0.0004   XZ=             -0.0003   YZ=              0.0000

  Exact polarizability:  25.555   0.001  23.195   0.000   0.000  23.194
 Approx polarizability:  28.917   0.002  28.979  -0.001  -0.001  28.977

                      1                      2                      3
                      A                      A                      A
 Frequencies --    320.6616               820.4487               820.5521
 Red. masses --      1.0078                 1.0590                 1.0590
 Frc consts  --      0.0611                 0.4200                 0.4201
 IR Inten    --      0.0000                 6.4443                 6.4431

                      4                      5                      6
                      A                      A                      A
 Frequencies --   1038.9684              1203.6687              1203.7486
 Red. masses --      2.7959                 1.4823                 1.4823
 Frc consts  --      1.7782                 1.2653                 1.2655
 IR Inten    --      0.0000                 0.0000                 0.0000

                      7                      8                      9
                      A                      A                      A
 Frequencies --   1378.9697              1417.3629              1475.3254
 Red. masses --      1.1966                 1.3355                 1.0148
 Frc consts  --      1.3406                 1.5807                 1.3014
 IR Inten    --      0.7915                 0.0000                 0.0837

                     10                     11                     12
                      A                      A                      A
 Frequencies --   1475.3463              1475.9284              1475.9552
 Red. masses --      1.0145                 1.0597                 1.0592
 Frc consts  --      1.3011                 1.3600                 1.3595
 IR Inten    --      0.0235                10.8005                10.6930

                     13                     14                     15
                      A                      A                      A
 Frequencies --   3054.9653              3056.7061              3135.3732
 Red. masses --      1.0354                 1.0402                 1.1033
 Frc consts  --      5.6932                 5.7262                 6.3901
 IR Inten    --     49.3223                 0.1355                 0.0017

                     16                     17                     18
                      A                      A                      A
 Frequencies --   3135.5676              3155.9253              3156.1252
 Red. masses --      1.1033                 1.1039                 1.1039
 Frc consts  --      6.3909                 6.4780                 6.4788
 IR Inten    --      0.0078                42.7078                42.7053

 - Thermochemistry -
 -------------------
 Temperature   298.150 Kelvin.  Pressure   1.00000 Atm.
 Atom     1 has atomic number  6 and mass  12.00000

 Molecular mass:    30.04695 amu.
 Principal axes and moments of inertia in atomic units:
                           1         2         3
     Eigenvalues --    22.64355  90.04654  90.04790
           X            1.00000   0.00000   0.00000
           Y            0.00000   1.00000   0.00002
           Z            0.00000  -0.00002   1.00000
 This molecule is an asymmetric top.
 Rotational symmetry number  1.
 Rotational temperatures (Kelvin)      3.82510     0.96188     0.96186
 Rotational constants (GHZ):          79.70221    20.04232    20.04201
 Zero-point vibrational energy     196197.1 (Joules/Mol)
                                   46.89224 (Kcal/Mol)
 Warning -- explicit consideration of   1 degrees of freedom as
           vibrations may cause significant error
 Vibrational temperatures:    461.36  1180.44  1180.59  1494.84  1731.81
          (Kelvin)           1731.92  1984.03  2039.27  2122.66  2122.69
                             2123.53  2123.57  4395.41  4397.91  4511.10
                             4511.38  4540.67  4540.95

 Zero-point correction=                           0.074728 (Hartree/Particle)
 Thermal correction to Energy=                    0.078202
 Thermal correction to Enthalpy=                  0.079146
 Thermal correction to Gibbs Free Energy=         0.051627
 Sum of electronic and zero-point Energies=            -79.591995
 Sum of electronic and thermal Energies=               -79.588520
 Sum of electronic and thermal Enthalpies=             -79.587576
 Sum of electronic and thermal Free Energies=          -79.615095

                     E (Thermal)             CV                S
                      KCal/Mol        Cal/Mol-Kelvin    Cal/Mol-Kelvin
 Total                   49.072             10.112             57.919
 Electronic               0.000              0.000              0.000
 Translational            0.889              2.981             36.134
 Rotational               0.889              2.981             19.846
 Vibrational             47.295              4.151              1.939
 Vibration     1          0.706              1.634              1.307

 Optimization completed.
    -- Stationary point found.
 Normal termination of Gaussian 09 at Wed Jun  9 20:39:39 2021.
