 Gaussian 09, Revision D.01,
 Gaussian 09:  EM64L-G09RevD.01 24-Apr-2013

 ----------------------------------------------------------------------
 # PBE1PBE Def2SVP Freq EmpiricalDispersion=GD3BJ integral=ultrafinegri
 d Temperature=298.15
 ----------------------------------------------------------------------

 ----------------
 CO2_opt_hess_g09
 ----------------
 Symbolic Z-matrix:
 Charge =  0 Multiplicity = 1

                         Standard orientation:
 ---------------------------------------------------------------------
 Center     Atomic      Atomic             Coordinates (Angstroms)
 Number     Number       Type             X           Y           Z
 ---------------------------------------------------------------------
      1          8           0        0.000000    0.000000    1.159304
      2          6           0        0.000000    0.000000   -0.000003
      3          8           0        0.000000    0.000000   -1.159301
 ---------------------------------------------------------------------

 SCF Done:  E(RPBE1PBE) =  -188.244227716     A.U. after   11 cycles

 The electronic state is 1-SG.
 Alpha  occ. eigenvalues --  -19.29272 -19.29266 -10.42285  -1.18156  -1.14080
 Alpha  occ. eigenvalues --   -0.57266  -0.53687  -0.53687  -0.53400  -0.38682
 Alpha  occ. eigenvalues --   -0.38682
 Alpha virt. eigenvalues --    0.04391   0.04391   0.07374   0.35684   0.43536
 Alpha virt. eigenvalues --    0.43536   0.48442   0.77958   0.82500   0.92476
 Alpha virt. eigenvalues --    0.92476   1.11521   1.11689   1.11689   1.24713

 Mulliken charges:
               1
     1  O   -0.160393
     2  C    0.320774
     3  O   -0.160381
 Sum of Mulliken charges =   0.00000

 Dipole moment (field-independent basis, Debye):
    X=              0.0000    Y=              0.0000    Z=             -0.0001  Tot=              0.0001
 Quadrupole moment (field-independent basis, Debye-Ang):
   XX=            -14.4609   YY=            -14.4609   ZZ=            -19.1417
   XY=              0.0000   XZ=              0.0000   YZ=              0.0000

  Exact polarizability:   7.342   0.000   7.342   0.000   0.000  21.207
 Approx polarizability:   8.721   0.000   8.721   0.000   0.000  42.018

                      1                      2                      3
                     PI                     PI                     SG
 Frequencies --    667.5012               667.5012              1414.6406
 Red. masses --     12.8774                12.8774                15.9949
 Frc consts  --      3.3805                 3.3805                18.8592
 IR Inten    --     35.9148                35.9148                 0.0000

                      4
                     SG
 Frequencies --   2519.6044
 Red. masses --     12.8774
 Frc consts  --     48.1662
 IR Inten    --    652.0231

 - Thermochemistry -
 -------------------
 Temperature   298.150 Kelvin.  Pressure   1.00000 Atm.
 Atom     1 has atomic number  8 and mass  15.99491

 Molecular mass:    43.98983 amu.
 Principal axes and moments of inertia in atomic units:
                           1         2         3
     Eigenvalues --     0.00000 153.53352 153.53352
           X            0.00000   0.00000   1.00000
           Y            0.00000   1.00000   0.00000
           Z            1.00000   0.00000   0.00000
 This molecule is a prolate symmetric top.
 Rotational symmetry number  1.
 Rotational temperature (Kelvin)      0.56414
 Rotational constant (GHZ):          11.754705
 Zero-point vibrational energy      31517.1 (Joules/Mol)
                                    7.53277 (Kcal/Mol)
 Vibrational temperatures:    960.38   960.38  2035.35  3625.14
          (Kelvin)

 Zero-point correction=                           0.012004 (Hartree/Particle)
 Thermal correction to Energy=                    0.014625
 Thermal correction to Enthalpy=                  0.015569
 Thermal correction to Gibbs Free Energy=        -0.009342
 Sum of electronic and zero-point Energies=           -188.232223
 Sum of electronic and thermal Energies=              -188.229603
 Sum of electronic and thermal Enthalpies=            -188.228659
 Sum of electronic and thermal Free Energies=         -188.253569

                     E (Thermal)             CV                S
                      KCal/Mol        Cal/Mol-Kelvin    Cal/Mol-Kelvin
 Total                    9.177              6.856             52.428
 Electronic               0.000              0.000              0.000
 Translational            0.889              2.981             37.270
 Rotational               0.592              1.987             14.447
 Vibrational              7.696              1.888              0.711

 Optimization completed.
    -- Stationary point found.
 Normal termination of Gaussian 09 at Wed Jun  9 09:56:40 2021.
