 Gaussian 09, Revision D.01,
 Gaussian 09:  EM64L-G09RevD.01 24-Apr-2013

 ----------------------------------------------------------------------
 # PBE1PBE Def2SVP Freq EmpiricalDispersion=GD3BJ integral=ultrafinegri
 d Temperature=298.15
 ----------------------------------------------------------------------

 -----------
 H2_hess_g09
 -----------
 Symbolic Z-matrix:
 Charge =  0 Multiplicity = 1

                         Standard orientation:
 ---------------------------------------------------------------------
 Center     Atomic      Atomic             Coordinates (Angstroms)
 Number     Number       Type             X           Y           Z
 ---------------------------------------------------------------------
      1          1           0        0.000000    0.000000    0.380396
      2          1           0        0.000000    0.000000   -0.380396
 ---------------------------------------------------------------------

 SCF Done:  E(RPBE1PBE) =  -1.16382779780     A.U. after    5 cycles

 The electronic state is 1-SGG.
 Alpha  occ. eigenvalues --   -0.43364
 Alpha virt. eigenvalues --    0.08544   0.35294   0.73374   1.17621   1.17621
 Alpha virt. eigenvalues --    1.80776   1.94432   1.94432   3.37250

 Mulliken charges:
               1
     1  H    0.000000
     2  H    0.000000
 Sum of Mulliken charges =   0.00000

 Dipole moment (field-independent basis, Debye):
    X=              0.0000    Y=              0.0000    Z=              0.0000  Tot=              0.0000
 Quadrupole moment (field-independent basis, Debye-Ang):
   XX=             -2.0395   YY=             -2.0395   ZZ=             -1.4569
   XY=              0.0000   XZ=              0.0000   YZ=              0.0000

  Exact polarizability:   1.030   0.000   1.030   0.000   0.000   6.745
 Approx polarizability:   1.077   0.000   1.077   0.000   0.000   7.784

                      1
                     SGG
 Frequencies --   4383.9811
 Red. masses --      1.0078
 Frc consts  --     11.4123
 IR Inten    --      0.0000

 - Thermochemistry -
 -------------------
 Temperature   298.150 Kelvin.  Pressure   1.00000 Atm.
 Atom     1 has atomic number  1 and mass   1.00783

 Molecular mass:     2.01565 amu.
 Principal axes and moments of inertia in atomic units:
                           1         2         3
     Eigenvalues --     0.00000   1.04156   1.04156
           X            0.00000   1.00000   0.00000
           Y            0.00000   0.00000   1.00000
           Z            1.00000   0.00000   0.00000
 This molecule is a prolate symmetric top.
 Rotational symmetry number  2.
 Rotational temperature (Kelvin)     83.15769
 Rotational constant (GHZ):        1732.727125
 Zero-point vibrational energy      26222.0 (Joules/Mol)
                                    6.26722 (Kcal/Mol)
 Vibrational temperatures:   6307.56
          (Kelvin)

 Zero-point correction=                           0.009987 (Hartree/Particle)
 Thermal correction to Energy=                    0.012348
 Thermal correction to Enthalpy=                  0.013292
 Thermal correction to Gibbs Free Energy=        -0.001545
 Sum of electronic and zero-point Energies=             -1.153840
 Sum of electronic and thermal Energies=                -1.151480
 Sum of electronic and thermal Enthalpies=              -1.150536
 Sum of electronic and thermal Free Energies=           -1.165373

                     E (Thermal)             CV                S
                      KCal/Mol        Cal/Mol-Kelvin    Cal/Mol-Kelvin
 Total                    7.748              4.968             31.227
 Electronic               0.000              0.000              0.000
 Translational            0.889              2.981             28.080
 Rotational               0.592              1.987              3.147
 Vibrational              6.267              0.000              0.000

 Optimization completed.
    -- Stationary point found.
 Normal termination of Gaussian 09 at Wed Jun  9 20:51:01 2021.
