                         Program Version 4.2.1 -  RELEASE  -
|  1> ! Freq PBE0 RIJCOSX D3BJ def2-SVP def2/J
|  2> %geom MaxIter 100 end
|  3> %output
|  4> xyzfile=True
|  5> end
|  6> %scf
|  7> maxiter 250
|  8> end
|  9> %output
| 10> Print[P_Hirshfeld] = 1
| 11> end
| 12> % maxcore
| 13> 4000
| 14> %pal nprocs 4
| 15> end
| 16> %freq  Temp 298.15
| 17> end
| 18> *xyz 0 1
| 19> O   -0.00030711   0.39939477   0.00000000
| 20> H   -0.75345739  -0.20028157   0.00000000
| 21> H    0.75376450  -0.19911321   0.00000000
| 22> *
| 23>
| 24>                          ****END OF INPUT****

CARTESIAN COORDINATES (ANGSTROEM)
---------------------------------
  O     -0.000307    0.399395    0.000000
  H     -0.753457   -0.200282    0.000000
  H      0.753764   -0.199113    0.000000

 Total Charge           Charge          ....    0
 Multiplicity           Mult            ....    1
 Number of Electrons    NEL             ....   10
 Basis Dimension        Dim             ....   24

ORBITAL ENERGIES
----------------

  NO   OCC          E(Eh)            E(eV)
   0   2.0000     -19.192665      -522.2590
   1   2.0000      -1.007062       -27.4036
   2   2.0000      -0.526006       -14.3134
   3   2.0000      -0.383044       -10.4232
   4   2.0000      -0.305032        -8.3004
   5   0.0000       0.064280         1.7491
   6   0.0000       0.141867         3.8604
   7   0.0000       0.575914        15.6714
   8   0.0000       0.644953        17.5501
   9   0.0000       0.941411        25.6171

MULLIKEN ATOMIC CHARGES
-----------------------
   0 O :   -0.303780
   1 H :    0.151890
   2 H :    0.151890
Sum of atomic charges:   -0.0000000

LOEWDIN ATOMIC CHARGES
----------------------
   0 O :   -0.147812
   1 H :    0.073908
   2 H :    0.073905

  Mayer bond orders larger than 0.100000
B(  0-O ,  1-H ) :   1.0083 B(  0-O ,  2-H ) :   1.0083

Dispersion correction           -0.000276897
FINAL SINGLE POINT ENERGY       -76.276703000871

DIPOLE MOMENT
-------------
                                X             Y             Z
Electronic contribution:     -0.00016       0.19916      -0.00000
Nuclear contribution   :      0.00077      -0.99732       0.00000
                        -----------------------------------------
Total Dipole Moment    :      0.00061      -0.79816      -0.00000
                        -----------------------------------------
Magnitude (a.u.)       :      0.79816
Magnitude (Debye)      :      2.02875

Dispersion correction in the Hessian             ... done   (      0.2 sec)

VIBRATIONAL FREQUENCIES
-----------------------

Scaling factor for frequencies =  1.000000000  (already applied!)

   0:         0.00 cm**-1
   1:         0.00 cm**-1
   2:         0.00 cm**-1
   3:         0.00 cm**-1
   4:         0.00 cm**-1
   5:         0.00 cm**-1
   6:      1646.05 cm**-1
   7:      3864.98 cm**-1
   8:      3962.59 cm**-1

IR SPECTRUM
-----------

 Mode    freq (cm**-1)   T**2         TX         TY         TZ
-------------------------------------------------------------------
   6:      1646.05   58.695663  (  0.005900  -7.661307  -0.000000)
   7:      3864.98    8.837755  (  0.000377   2.972836  -0.000000)
   8:      3962.59   38.194245  (  6.180148   0.003899   0.000000)

--------------------------
THERMOCHEMISTRY AT 298.15K
--------------------------

Temperature         ... 298.15 K
Pressure            ... 1.00 atm
Total Mass          ... 18.02 AMU

Throughout the following assumptions are being made:
  (1) The electronic state is orbitally nondegenerate
  (2) There are no thermally accessible electronically excited states
  (3) Hindered rotations indicated by low frequency modes are not
      treated as such but are treated as vibrations and this may
      cause some error
  (4) All equations used are the standard statistical mechanics
      equations for an ideal gas
  (5) All vibrations are strictly harmonic

freq.    1646.05  E(vib)   ...       0.00
freq.    3864.98  E(vib)   ...       0.00
freq.    3962.59  E(vib)   ...       0.00

------------
INNER ENERGY
------------

The inner energy is: U= E(el) + E(ZPE) + E(vib) + E(rot) + E(trans)
    E(el)   - is the total energy from the electronic structure calculation
              = E(kin-el) + E(nuc-el) + E(el-el) + E(nuc-nuc)
    E(ZPE)  - the the zero temperature vibrational energy from the frequency calculation
    E(vib)  - the the finite temperature correction to E(ZPE) due to population
              of excited vibrational states
    E(rot)  - is the rotational thermal energy
    E(trans)- is the translational thermal energy

Summary of contributions to the inner energy U:
Electronic energy                ...    -76.27670300 Eh
Zero point energy                ...      0.02158247 Eh      13.54 kcal/mol
Thermal vibrational correction   ...      0.00000266 Eh       0.00 kcal/mol
Thermal rotational correction    ...      0.00141627 Eh       0.89 kcal/mol
Thermal translational correction ...      0.00141627 Eh       0.89 kcal/mol
-----------------------------------------------------------------------
Total thermal energy                    -76.25228532 Eh

Summary of corrections to the electronic energy:
(perhaps to be used in another calculation)
Total thermal correction                  0.00283521 Eh       1.78 kcal/mol
Non-thermal (ZPE) correction              0.02158247 Eh      13.54 kcal/mol
-----------------------------------------------------------------------
Total correction                          0.02441768 Eh      15.32 kcal/mol

--------
ENTHALPY
--------

The enthalpy is H = U + kB*T
                kB is Boltzmann's constant
Total free energy                 ...    -76.25228532 Eh
Thermal Enthalpy correction       ...      0.00094421 Eh       0.59 kcal/mol
-----------------------------------------------------------------------
Total Enthalpy                    ...    -76.25134111 Eh

Note: Rotational entropy computed according to Herzberg
Infrared and Raman Spectra, Chapter V,1, Van Nostrand Reinhold, 1945
Point Group:  Cs, Symmetry Number:   1
Rotational constants in cm-1:    26.233744    14.723522     9.430637

Vibrational entropy computed according to the QRRHO of S. Grimme
Chem.Eur.J. 2012 18 9955

-------
ENTROPY
-------

The entropy contributions are T*S = T*(S(el)+S(vib)+S(rot)+S(trans))
     S(el)   - electronic entropy
     S(vib)  - vibrational entropy
     S(rot)  - rotational entropy
     S(trans)- translational entropy
The entropies will be listed as mutliplied by the temperature to get
units of energy

Electronic entropy                ...      0.00000000 Eh      0.00 kcal/mol
Vibrational entropy               ...      0.00000300 Eh      0.00 kcal/mol
Rotational entropy                ...      0.00563945 Eh      3.54 kcal/mol
Translational entropy             ...      0.01644380 Eh     10.32 kcal/mol
-----------------------------------------------------------------------
Final entropy term                ...      0.02208625 Eh     13.86 kcal/mol

In case the symmetry of your molecule has not been determined correctly
or in case you have a reason to use a different symmetry number we print
out the resulting rotational entropy values for sn=1,12 :
 --------------------------------------------------------
|  sn= 1 | S(rot)=       0.00563945 Eh      3.54 kcal/mol|
|  sn= 2 | S(rot)=       0.00498500 Eh      3.13 kcal/mol|
|  sn= 3 | S(rot)=       0.00460216 Eh      2.89 kcal/mol|
|  sn= 4 | S(rot)=       0.00433054 Eh      2.72 kcal/mol|
|  sn= 5 | S(rot)=       0.00411985 Eh      2.59 kcal/mol|
|  sn= 6 | S(rot)=       0.00394771 Eh      2.48 kcal/mol|
|  sn= 7 | S(rot)=       0.00380216 Eh      2.39 kcal/mol|
|  sn= 8 | S(rot)=       0.00367608 Eh      2.31 kcal/mol|
|  sn= 9 | S(rot)=       0.00356488 Eh      2.24 kcal/mol|
|  sn=10 | S(rot)=       0.00346540 Eh      2.17 kcal/mol|
|  sn=11 | S(rot)=       0.00337541 Eh      2.12 kcal/mol|
|  sn=12 | S(rot)=       0.00329325 Eh      2.07 kcal/mol|
 --------------------------------------------------------

-------------------
GIBBS FREE ENERGY
-------------------

The Gibbs free energy is G = H - T*S

Total enthalpy                    ...    -76.25134111 Eh
Total entropy correction          ...     -0.02208625 Eh    -13.86 kcal/mol
-----------------------------------------------------------------------
Final Gibbs free energy         ...    -76.27342736 Eh

For completeness - the Gibbs free energy minus the electronic energy
G-E(el)                           ...      0.00327564 Eh      2.06 kcal/mol

                             ****ORCA TERMINATED NORMALLY****
TOTAL RUN TIME: 0 days 0 hours 0 minutes 26 seconds 257 msec
