============================== echo of input deck ==============================
start H2O_hess_nwchem_nwchem
echo
geometry
O    0.00000000   0.00000000   0.14524294
H    0.75400004   0.00000000  -0.45387478
H   -0.75400004   0.00000000  -0.45387478
end
charge 0
memory 4000 mb
basis
  *   library Def2-SVP
end
dft
  mult 1
  maxiter 100
  xc pbe0
end
task dft freq
task esp
================================================================================

 Output coordinates in angstroms (scale by  1.889725989 to convert to a.u.)

  No.       Tag          Charge          X              Y              Z
 ---- ---------------- ---------- -------------- -------------- --------------
    1 O                    8.0000     0.00000000     0.00000000     0.11982354
    2 H                    1.0000     0.75400004     0.00000000    -0.47929418
    3 H                    1.0000    -0.75400004     0.00000000    -0.47929418

         Total DFT energy =      -76.277848922646

                       DFT Final Molecular Orbital Analysis
                       ------------------------------------

 Vector    1  Occ=2.000000D+00  E=-1.920659D+01

 Vector    2  Occ=2.000000D+00  E=-1.007158D+00

 Vector    3  Occ=2.000000D+00  E=-5.258934D-01

 Vector    4  Occ=2.000000D+00  E=-3.824503D-01

 Vector    5  Occ=2.000000D+00  E=-3.051989D-01

 Vector    6  Occ=0.000000D+00  E= 6.330398D-02

 Vector    7  Occ=0.000000D+00  E= 1.424965D-01

 Vector    8  Occ=0.000000D+00  E= 5.757347D-01

 Vector    9  Occ=0.000000D+00  E= 6.434975D-01

 Vector   10  Occ=0.000000D+00  E= 9.199906D-01

 Vector   11  Occ=0.000000D+00  E= 9.475735D-01

 Vector   12  Occ=0.000000D+00  E= 1.031199D+00

 Vector   13  Occ=0.000000D+00  E= 1.056916D+00

 Vector   14  Occ=0.000000D+00  E= 1.358310D+00

 Vector   15  Occ=0.000000D+00  E= 1.397497D+00

     Multipole analysis of the density
     ---------------------------------

     L   x y z        total         alpha         beta         nuclear
     -   - - -        -----         -----         ----         -------
     0   0 0 0     -0.000000     -5.000000     -5.000000     10.000000

     1   1 0 0      0.000000      0.000000      0.000000      0.000000
     1   0 1 0     -0.000000     -0.000000     -0.000000      0.000000
     1   0 0 1     -0.799208     -0.399604     -0.399604      0.000000

     2   2 0 0     -3.200742     -3.630579     -3.630579      4.060415
     2   1 1 0     -0.000000     -0.000000     -0.000000      0.000000
     2   1 0 1     -0.000000     -0.000000     -0.000000      0.000000
     2   0 2 0     -5.205163     -2.602582     -2.602582      0.000000
     2   0 1 1     -0.000000     -0.000000     -0.000000      0.000000

 Zero-Point correction to Energy  =   13.521 kcal/mol  (  0.021547 au)
 Thermal correction to Energy     =   15.299 kcal/mol  (  0.024381 au)
 Thermal correction to Enthalpy   =   15.891 kcal/mol  (  0.025324 au)
 Total Entropy                    =   45.088 cal/mol-K
   - Translational                =   34.593 cal/mol-K (mol. weight =  18.0106)
   - Rotational                   =   10.489 cal/mol-K (symmetry #  =        2)
   - Vibrational                  =    0.006 cal/mol-K
   - Translational                  =    2.979 cal/mol-K
   - Rotational                     =    2.979 cal/mol-K
   - Vibrational                    =    0.045 cal/mol-K
 P.Frequency       -0.00        0.00        0.00        0.00        0.00        0.00
 P.Frequency     1642.79     3860.38     3959.20

 Normal Eigenvalue ||           Projected Infra Red Intensities
  Mode   [cm**-1]  || [atomic units] [(debye/angs)**2] [(KM/mol)] [arbitrary]
 ------ ---------- || -------------- ----------------- ---------- -----------
    1       -0.000 ||    0.086783           2.002        84.601      16.033
    2        0.000 ||    0.031154           0.719        30.371       5.755
    3        0.000 ||    0.123610           2.852       120.501      22.836
    4        0.000 ||    0.123610           2.852       120.501      22.836
    5        0.000 ||    0.013226           0.305        12.893       2.443
    6        0.000 ||    0.000001           0.000         0.001       0.000
    7     1642.790 ||    0.060113           1.387        58.601      11.105
    8     3860.381 ||    0.009342           0.216         9.107       1.726
    9     3959.202 ||    0.039327           0.907        38.338       7.265
 ----------------------------------------------------------------------------

 Total times  cpu:        2.8s     wall:        7.1s
