   * xtb version 6.4.1 (conda-forge) compiled by 'runner@Mac-1641555615091.local' on
          program call               : /Users/tom/miniforge3/bin/xtb path_opt-1_xtb.xyz --chrg 0 --uhf 0 --opt
          number of atoms            :                     3
          number of electrons        :                     8
          charge                     :                     0
          spin                       :                   0.0

   ID    Z sym.   atoms
    1    8 O      1
    2    1 H      2, 3

          :  Hamiltonian                  GFN2-xTB          :
 * total energy  :    -5.0681092 Eh     change       -0.5808687E-12 Eh
 * total energy  :    -5.0703228 Eh     change       -0.2213632E-02 Eh
 * total energy  :    -5.0705338 Eh     change       -0.2109898E-03 Eh
 * total energy  :    -5.0705429 Eh     change       -0.9125861E-05 Eh
 * total energy  :    -5.0705441 Eh     change       -0.1137823E-05 Eh
   *** GEOMETRY OPTIMIZATION CONVERGED AFTER 5 ITERATIONS ***

 final structure:
================
3
 xtb: 6.4.1 (conda-forge)
O        -0.00030494407457    0.37999652514518    0.00000000000000
H        -0.77174750620548   -0.19060466827851    0.00000000000000
H         0.77205245028006   -0.18939185686667    0.00000000000000

          :  Hamiltonian                  GFN2-xTB          :
         :: total energy              -5.070544053370 Eh    ::
         :: gradient norm              0.000655855810 Eh/a0 ::
         :: HOMO-LUMO gap             14.382362051053 eV    ::
         :: SCC energy                -5.104809439662 Eh    ::
         :: -> dispersion             -0.000141099538 Eh    ::
         :: repulsion energy           0.034265386266 Eh    ::

    * Orbital Energies and Occupations

         #    Occupation            Energy/Eh            Energy/eV
      -------------------------------------------------------------
         1        2.0000           -0.6800902             -18.5062
         2        2.0000           -0.5681995             -15.4615
         3        2.0000           -0.5110184             -13.9055
         4        2.0000           -0.4464134             -12.1475 (HOMO)
         5                          0.0821287               2.2348 (LUMO)
         6                          0.2504450               6.8150
      -------------------------------------------------------------
                  HL-Gap            0.5285421 Eh           14.3824 eV

     #   Z          covCN         q      C6AA      α(0)
     1   8 O        1.611    -0.565    24.354     6.661
     2   1 H        0.805     0.282     0.777     1.384
     3   1 H        0.805     0.282     0.777     1.384

Wiberg/Mayer (AO) data.
largest (>0.10) Wiberg bond orders for each atom

     #   Z sym  total        # sym  WBO       # sym  WBO       # sym  WBO
 ---------------------------------------------------------------------------
     1   8 O    1.840 --     3 H    0.920     2 H    0.920
     2   1 H    0.920 --     1 O    0.920
     3   1 H    0.920 --     1 O    0.920
 ---------------------------------------------------------------------------

molecular dipole:
                 x           y           z       tot (Debye)
 q only:        0.000      -0.608       0.000
   full:        0.001      -0.873       0.000       2.219

           -------------------------------------------------
          | TOTAL ENERGY               -5.070544053370 Eh   |
          | GRADIENT NORM               0.000655855810 Eh/α |
          | HOMO-LUMO GAP              14.382362051053 eV   |
           -------------------------------------------------

 * finished run on 2023/01/22 at 17:39:18.196
